[Molden Format]

[FREQ]
       -2840.4097890873
        1100.3073822198
        2022.5822805039

[FR-COORD]
H          0.3412796111       -2.1419563496        0.0000000000
H         -1.9092414546       -1.9041337419        0.0000000000
BE         0.1753438855        0.4524709327        0.0000000000

[FR-NORM-COORD]
vibration 1
           0.7364421909        0.0928510250       -0.0000000000
          -0.2885551177        0.5977412633       -0.0000000000
          -0.0500868436       -0.0772283686       -0.0000000000
vibration 2
          -0.2354190737       -0.1026088717        0.0000000000
           0.7737500608        0.5735523714        0.0000000000
          -0.0602011123       -0.0526652249       -0.0000000000
vibration 3
          -0.1542912062        0.9795061767       -0.0000000000
           0.0605170056       -0.0456434123       -0.0000000000
           0.0104866918       -0.1044331061        0.0000000000
