[Molden Format]

[FREQ]
       -2840.4097914568
        1100.3073898656
        2022.5822790438

[FR-COORD]
H          0.3412796050       -2.1419563501        0.0000000000
H         -1.9092414597       -1.9041337359        0.0000000000
BE         0.1753438868        0.4524709321        0.0000000000

[FR-NORM-COORD]
vibration 1
           0.7364421911        0.0928510235       -0.0000000000
          -0.2885551159        0.5977412642        0.0000000000
          -0.0500868438       -0.0772283685       -0.0000000000
vibration 2
          -0.2354190747       -0.1026088670        0.0000000000
           0.7737500629        0.5735523690       -0.0000000000
          -0.0602011124       -0.0526652251        0.0000000000
vibration 3
          -0.1542912029        0.9795061774       -0.0000000000
           0.0605170024       -0.0456434153       -0.0000000000
           0.0104866918       -0.1044331059        0.0000000000
